# vtk DataFile Version 1.0
FinEtools Export
ASCII

DATASET UNSTRUCTURED_GRID
POINTS 3400 double
0.0 0.0 0.0
5.0e-5 0.0 0.0
0.0001 0.0 0.0
0.00015 0.0 0.0
0.0002 0.0 0.0
0.00025 0.0 0.0
0.0003 0.0 0.0
0.00035 0.0 0.0
0.0004 0.0 0.0
0.00045 0.0 0.0
0.0005 0.0 0.0
0.00055 0.0 0.0
0.0006 0.0 0.0
0.00065 0.0 0.0
0.0007 0.0 0.0
0.00075 0.0 0.0
0.0008 0.0 0.0
0.00085 0.0 0.0
0.0009 0.0 0.0
0.00095 0.0 0.0
0.001 0.0 0.0
0.00105 0.0 0.0
0.0011 0.0 0.0
0.00115 0.0 0.0
0.0012 0.0 0.0
0.00125 0.0 0.0
0.0013 0.0 0.0
0.00135 0.0 0.0
0.0014 0.0 0.0
0.00145 0.0 0.0
0.0015 0.0 0.0
0.00155 0.0 0.0
0.0016 0.0 0.0
0.00165 0.0 0.0
0.0017 0.0 0.0
0.00175 0.0 0.0
0.0018 0.0 0.0
0.00185 0.0 0.0
0.0019 0.0 0.0
0.00195 0.0 0.0
0.002 0.0 0.0
0.00205 0.0 0.0
0.0021 0.0 0.0
0.00215 0.0 0.0
0.0022 0.0 0.0
0.00225 0.0 0.0
0.0023 0.0 0.0
0.00235 0.0 0.0
0.0024 0.0 0.0
0.00245 0.0 0.0
0.0025 0.0 0.0
0.00255 0.0 0.0
0.0026 0.0 0.0
0.00265 0.0 0.0
0.0027 0.0 0.0
0.00275 0.0 0.0
0.0028 0.0 0.0
0.00285 0.0 0.0
0.0029 0.0 0.0
0.00295 0.0 0.0
0.003 0.0 0.0
0.0 0.0003333333333333333 0.0
5.0e-5 0.0003333333333333333 0.0
0.0001 0.0003333333333333333 0.0
0.00015 0.0003333333333333333 0.0
0.0002 0.0003333333333333333 0.0
0.00025 0.0003333333333333333 0.0
0.0003 0.0003333333333333333 0.0
0.00035 0.0003333333333333333 0.0
0.0004 0.0003333333333333333 0.0
0.00045 0.0003333333333333333 0.0
0.0005 0.0003333333333333333 0.0
0.00055 0.0003333333333333333 0.0
0.0006 0.0003333333333333333 0.0
0.00065 0.0003333333333333333 0.0
0.0007 0.0003333333333333333 0.0
0.00075 0.0003333333333333333 0.0
0.0008 0.0003333333333333333 0.0
0.00085 0.0003333333333333333 0.0
0.0009 0.0003333333333333333 0.0
0.00095 0.0003333333333333333 0.0
0.001 0.0003333333333333333 0.0
0.00105 0.0003333333333333333 0.0
0.0011 0.0003333333333333333 0.0
0.00115 0.0003333333333333333 0.0
0.0012 0.0003333333333333333 0.0
0.00125 0.0003333333333333333 0.0
0.0013 0.0003333333333333333 0.0
0.00135 0.0003333333333333333 0.0
0.0014 0.0003333333333333333 0.0
0.00145 0.0003333333333333333 0.0
0.0015 0.0003333333333333333 0.0
0.00155 0.0003333333333333333 0.0
0.0016 0.0003333333333333333 0.0
0.00165 0.0003333333333333333 0.0
0.0017 0.0003333333333333333 0.0
0.00175 0.0003333333333333333 0.0
0.0018 0.0003333333333333333 0.0
0.00185 0.0003333333333333333 0.0
0.0019 0.0003333333333333333 0.0
0.00195 0.0003333333333333333 0.0
0.002 0.0003333333333333333 0.0
0.00205 0.0003333333333333333 0.0
0.0021 0.0003333333333333333 0.0
0.00215 0.0003333333333333333 0.0
0.0022 0.0003333333333333333 0.0
0.00225 0.0003333333333333333 0.0
0.0023 0.0003333333333333333 0.0
0.00235 0.0003333333333333333 0.0
0.0024 0.0003333333333333333 0.0
0.00245 0.0003333333333333333 0.0
0.0025 0.0003333333333333333 0.0
0.00255 0.0003333333333333333 0.0
0.0026 0.0003333333333333333 0.0
0.00265 0.0003333333333333333 0.0
0.0027 0.0003333333333333333 0.0
0.00275 0.0003333333333333333 0.0
0.0028 0.0003333333333333333 0.0
0.00285 0.0003333333333333333 0.0
0.0029 0.0003333333333333333 0.0
0.00295 0.0003333333333333333 0.0
0.003 0.0003333333333333333 0.0
0.0 0.0006666666666666666 0.0
5.0e-5 0.0006666666666666666 0.0
0.0001 0.0006666666666666666 0.0
0.00015 0.0006666666666666666 0.0
0.0002 0.0006666666666666666 0.0
0.00025 0.0006666666666666666 0.0
0.0003 0.0006666666666666666 0.0
0.00035 0.0006666666666666666 0.0
0.0004 0.0006666666666666666 0.0
0.00045 0.0006666666666666666 0.0
0.0005 0.0006666666666666666 0.0
0.00055 0.0006666666666666666 0.0
0.0006 0.0006666666666666666 0.0
0.00065 0.0006666666666666666 0.0
0.0007 0.0006666666666666666 0.0
0.00075 0.0006666666666666666 0.0
0.0008 0.0006666666666666666 0.0
0.00085 0.0006666666666666666 0.0
0.0009 0.0006666666666666666 0.0
0.00095 0.0006666666666666666 0.0
0.001 0.0006666666666666666 0.0
0.00105 0.0006666666666666666 0.0
0.0011 0.0006666666666666666 0.0
0.00115 0.0006666666666666666 0.0
0.0012 0.0006666666666666666 0.0
0.00125 0.0006666666666666666 0.0
0.0013 0.0006666666666666666 0.0
0.00135 0.0006666666666666666 0.0
0.0014 0.0006666666666666666 0.0
0.00145 0.0006666666666666666 0.0
0.0015 0.0006666666666666666 0.0
0.00155 0.0006666666666666666 0.0
0.0016 0.0006666666666666666 0.0
0.00165 0.0006666666666666666 0.0
0.0017 0.0006666666666666666 0.0
0.00175 0.0006666666666666666 0.0
0.0018 0.0006666666666666666 0.0
0.00185 0.0006666666666666666 0.0
0.0019 0.0006666666666666666 0.0
0.00195 0.0006666666666666666 0.0
0.002 0.0006666666666666666 0.0
0.00205 0.0006666666666666666 0.0
0.0021 0.0006666666666666666 0.0
0.00215 0.0006666666666666666 0.0
0.0022 0.0006666666666666666 0.0
0.00225 0.0006666666666666666 0.0
0.0023 0.0006666666666666666 0.0
0.00235 0.0006666666666666666 0.0
0.0024 0.0006666666666666666 0.0
0.00245 0.0006666666666666666 0.0
0.0025 0.0006666666666666666 0.0
0.00255 0.0006666666666666666 0.0
0.0026 0.0006666666666666666 0.0
0.00265 0.0006666666666666666 0.0
0.0027 0.0006666666666666666 0.0
0.00275 0.0006666666666666666 0.0
0.0028 0.0006666666666666666 0.0
0.00285 0.0006666666666666666 0.0
0.0029 0.0006666666666666666 0.0
0.00295 0.0006666666666666666 0.0
0.003 0.0006666666666666666 0.0
0.0 0.001 0.0
5.0e-5 0.001 0.0
0.0001 0.001 0.0
0.00015 0.001 0.0
0.0002 0.001 0.0
0.00025 0.001 0.0
0.0003 0.001 0.0
0.00035 0.001 0.0
0.0004 0.001 0.0
0.00045 0.001 0.0
0.0005 0.001 0.0
0.00055 0.001 0.0
0.0006 0.001 0.0
0.00065 0.001 0.0
0.0007 0.001 0.0
0.00075 0.001 0.0
0.0008 0.001 0.0
0.00085 0.001 0.0
0.0009 0.001 0.0
0.00095 0.001 0.0
0.001 0.001 0.0
0.00105 0.001 0.0
0.0011 0.001 0.0
0.00115 0.001 0.0
0.0012 0.001 0.0
0.00125 0.001 0.0
0.0013 0.001 0.0
0.00135 0.001 0.0
0.0014 0.001 0.0
0.00145 0.001 0.0
0.0015 0.001 0.0
0.00155 0.001 0.0
0.0016 0.001 0.0
0.00165 0.001 0.0
0.0017 0.001 0.0
0.00175 0.001 0.0
0.0018 0.001 0.0
0.00185 0.001 0.0
0.0019 0.001 0.0
0.00195 0.001 0.0
0.002 0.001 0.0
0.00205 0.001 0.0
0.0021 0.001 0.0
0.00215 0.001 0.0
0.0022 0.001 0.0
0.00225 0.001 0.0
0.0023 0.001 0.0
0.00235 0.001 0.0
0.0024 0.001 0.0
0.00245 0.001 0.0
0.0025 0.001 0.0
0.00255 0.001 0.0
0.0026 0.001 0.0
0.00265 0.001 0.0
0.0027 0.001 0.0
0.00275 0.001 0.0
0.0028 0.001 0.0
0.00285 0.001 0.0
0.0029 0.001 0.0
0.00295 0.001 0.0
0.003 0.001 0.0
0.0 0.0 0.0003333333333333333
5.0e-5 0.0 0.0003333333333333333
0.0001 0.0 0.0003333333333333333
0.00015 0.0 0.0003333333333333333
0.0002 0.0 0.0003333333333333333
0.00025 0.0 0.0003333333333333333
0.0003 0.0 0.0003333333333333333
0.00035 0.0 0.0003333333333333333
0.0004 0.0 0.0003333333333333333
0.00045 0.0 0.0003333333333333333
0.0005 0.0 0.0003333333333333333
0.00055 0.0 0.0003333333333333333
0.0006 0.0 0.0003333333333333333
0.00065 0.0 0.0003333333333333333
0.0007 0.0 0.0003333333333333333
0.00075 0.0 0.0003333333333333333
0.0008 0.0 0.0003333333333333333
0.00085 0.0 0.0003333333333333333
0.0009 0.0 0.0003333333333333333
0.00095 0.0 0.0003333333333333333
0.001 0.0 0.0003333333333333333
0.00105 0.0 0.0003333333333333333
0.0011 0.0 0.0003333333333333333
0.00115 0.0 0.0003333333333333333
0.0012 0.0 0.0003333333333333333
0.00125 0.0 0.0003333333333333333
0.0013 0.0 0.0003333333333333333
0.00135 0.0 0.0003333333333333333
0.0014 0.0 0.0003333333333333333
0.00145 0.0 0.0003333333333333333
0.0015 0.0 0.0003333333333333333
0.00155 0.0 0.0003333333333333333
0.0016 0.0 0.0003333333333333333
0.00165 0.0 0.0003333333333333333
0.0017 0.0 0.0003333333333333333
0.00175 0.0 0.0003333333333333333
0.0018 0.0 0.0003333333333333333
0.00185 0.0 0.0003333333333333333
0.0019 0.0 0.0003333333333333333
0.00195 0.0 0.0003333333333333333
0.002 0.0 0.0003333333333333333
0.00205 0.0 0.0003333333333333333
0.0021 0.0 0.0003333333333333333
0.00215 0.0 0.0003333333333333333
0.0022 0.0 0.0003333333333333333
0.00225 0.0 0.0003333333333333333
0.0023 0.0 0.0003333333333333333
0.00235 0.0 0.0003333333333333333
0.0024 0.0 0.0003333333333333333
0.00245 0.0 0.0003333333333333333
0.0025 0.0 0.0003333333333333333
0.00255 0.0 0.0003333333333333333
0.0026 0.0 0.0003333333333333333
0.00265 0.0 0.0003333333333333333
0.0027 0.0 0.0003333333333333333
0.00275 0.0 0.0003333333333333333
0.0028 0.0 0.0003333333333333333
0.00285 0.0 0.0003333333333333333
0.0029 0.0 0.0003333333333333333
0.00295 0.0 0.0003333333333333333
0.003 0.0 0.0003333333333333333
0.0 0.0003333333333333333 0.0003333333333333333
5.0e-5 0.0003333333333333333 0.0003333333333333333
0.0001 0.0003333333333333333 0.0003333333333333333
0.00015 0.0003333333333333333 0.0003333333333333333
0.0002 0.0003333333333333333 0.0003333333333333333
0.00025 0.0003333333333333333 0.0003333333333333333
0.0003 0.0003333333333333333 0.0003333333333333333
0.00035 0.0003333333333333333 0.0003333333333333333
0.0004 0.0003333333333333333 0.0003333333333333333
0.00045 0.0003333333333333333 0.0003333333333333333
0.0005 0.0003333333333333333 0.0003333333333333333
0.00055 0.0003333333333333333 0.0003333333333333333
0.0006 0.0003333333333333333 0.0003333333333333333
0.00065 0.0003333333333333333 0.0003333333333333333
0.0007 0.0003333333333333333 0.0003333333333333333
0.00075 0.0003333333333333333 0.0003333333333333333
0.0008 0.0003333333333333333 0.0003333333333333333
0.00085 0.0003333333333333333 0.0003333333333333333
0.0009 0.0003333333333333333 0.0003333333333333333
0.00095 0.0003333333333333333 0.0003333333333333333
0.001 0.0003333333333333333 0.0003333333333333333
0.00105 0.0003333333333333333 0.0003333333333333333
0.0011 0.0003333333333333333 0.0003333333333333333
0.00115 0.0003333333333333333 0.0003333333333333333
0.0012 0.0003333333333333333 0.0003333333333333333
0.00125 0.0003333333333333333 0.0003333333333333333
0.0013 0.0003333333333333333 0.0003333333333333333
0.00135 0.0003333333333333333 0.0003333333333333333
0.0014 0.0003333333333333333 0.0003333333333333333
0.00145 0.0003333333333333333 0.0003333333333333333
0.0015 0.0003333333333333333 0.0003333333333333333
0.00155 0.0003333333333333333 0.0003333333333333333
0.0016 0.0003333333333333333 0.0003333333333333333
0.00165 0.0003333333333333333 0.0003333333333333333
0.0017 0.0003333333333333333 0.0003333333333333333
[...]
POINT_DATA 3400
VECTORS u double
0.0 0.0 0.0
-6.26184624255538e-5 -2.4240150178793607e-5 3.6694225503409737e-7
-5.837030131366937e-5 -6.714331715345974e-5 9.471153387431115e-6
-6.091651830255507e-5 -4.941067831073533e-5 -5.872014632058995e-6
-0.00010840112039083368 -4.879183297926107e-5 -7.511701211316932e-6
-0.0001170694673652724 -7.080647849086622e-5 -1.3474388432379377e-5
-0.00012879909458326095 -6.651903183336533e-5 -3.074015917950626e-5
-0.00015653174034591186 -6.218471145010667e-5 -4.581601565259746e-5
-0.00017624576130191057 -6.472355726688545e-5 -6.414799705470766e-5
-0.0001960007522411691 -6.259492525759128e-5 -8.586616622812067e-5
-0.00021929391752618458 -5.9397067393043e-5 -0.00010804311827331606
-0.00024215331710505822 -5.7179399163889546e-5 -0.00013183341048676357
-0.0002653312815445407 -5.44607129101e-5 -0.00015706909354221886
-0.0002893006641881158 -5.157567258534985e-5 -0.0001832707991049049
-0.0003136183474934244 -4.884171801121402e-5 -0.00021054741984722947
-0.00033830901011800633 -4.615528446164165e-5 -0.00023883999988863843
-0.00036340124061751676 -4.355299874529598e-5 -0.0002680693357287045
-0.00038885566110329853 -4.107093438671117e-5 -0.00029821752118506395
-0.00041467136661749426 -3.870572121707215e-5 -0.00032925456380399727
-0.00044085173106737116 -3.645870340668844e-5 -0.0003611510886362186
-0.0004673981540041413 -3.4328623461515745e-5 -0.0003938829772142942
-0.0004943151902192861 -3.23101043646772e-5 -0.00042742575292752626
-0.0005216077738922709 -3.0397008461551356e-5 -0.00046175521224415986
-0.000549280339348998 -2.858259627144925e-5 -0.0004968474930027101
-0.0005773366457813326 -2.6859843144305504e-5 -0.0005326787261137315
-0.0006057793756129654 -2.5221856602344037e-5 -0.0005692250951905617
-0.000634609937366929 -2.366204586467045e-5 -0.000606462893608717
-0.0006638283747740629 -2.2174232109402717e-5 -0.0006443685879831787
-0.0006934333269552707 -2.0752711722921596e-5 -0.0006829189081135797
-0.0007234220396754908 -1.939227469672729e-5 -0.0007220909358504725
-0.0007537904098034806 -1.808819746893372e-5 -0.0007618621886586466
-0.0007845330509765828 -1.6836219066252002e-5 -0.0008022106950020481
-0.0008156433725171151 -1.5632507153248134e-5 -0.0008431150587903221
-0.0008471136649457724 -1.4473619345375518e-5 -0.0008845545121969914
-0.000878935187203123 -1.3356463387500635e-5 -0.000926508956908217
-0.000911098252010934 -1.2278258691001844e-5 -0.0009689589943353943
-0.0009435923067918852 -1.1236500892820407e-5 -0.0010118859456110243
-0.0009764060083575821 -1.0228930475406967e-5 -0.0010552718622421334
-0.0010095272901934926 -9.253506055665665e-6 -0.0010990995281944843
-0.0010429434216793286 -8.308382662254882e-6 -0.0011433524539441343
-0.001076641059056227 -7.391895137363473e-6 -0.0011880148626715852
-0.001110606288478186 -6.502546685348179e-6 -0.0012330716682919692
-0.0011448246621878037 -5.639002506083625e-6 -0.0012785084444159975
-0.00117928122990964 -4.800088344792066e-6 -0.001324311382633704
-0.0012139605692055996 -3.984793593634938e-6 -0.0013704672377516124
-0.0012488468211327964 -3.1922781943678327e-6 -0.0014169632569107147
-0.0012839237415482841 -2.4218818724082194e-6 -0.001463787089133522
-0.0013191747843522542 -1.6731329880174088e-6 -0.0015109266723331053
-0.0013545832412598078 -9.457523161144407e-7 -0.001558370097153409
-0.0013901324730639984 -2.3964415388145533e-7 -0.001606105452691345
-0.0014258062786552154 4.4513659679179064e-7 -0.001654120669046341
-0.0014615894556568977 1.108455870715973e-6 -0.001702403383456002
-0.0014974686216039164 1.7502310704513219e-6 -0.0017509408558120548
-0.0015334334034841784 2.370647029577332e-6 -0.001799719903366123
-0.001569478330692115 2.9704898992531405e-6 -0.0018487266718194278
-0.0016056064530577782 3.5518672508282972e-6 -0.0018979457750148859
-0.001641838368212263 4.119873982704222e-6 -0.001947358960437216
-0.0016782261545320474 4.684821201265622e-6 -0.001996945471927758
-0.0017149085651380538 5.2745629195095125e-6 -0.0020466995329721117
-0.0017520753849736674 5.942222352240046e-6 -0.002096737770305904
-0.0017900493363846967 6.629535282423742e-6 -0.0021474358153954964
0.0 0.0 0.0
-6.109148317280906e-5 -3.2722244870128323e-6 -1.0740932888350955e-5
-4.898550202619595e-5 -1.3556775428014919e-5 -1.7224314768274433e-5
-4.993031592742726e-5 -1.130694512150687e-5 -3.128898608210655e-5
-0.00010650591497692735 -1.2490019821409692e-5 -3.188666746785444e-5
-0.00012056070140805437 -1.9027521074465344e-5 -4.491478688253537e-5
-0.00013421751853968852 -1.8882111250340066e-5 -6.236282835731442e-5
-0.00016623147894310352 -1.9265425041255677e-5 -7.421295552285017e-5
-0.00019023138228576987 -2.084950409194865e-5 -9.130592509973622e-5
-0.0002122693661001665 -2.0805657862550613e-5 -0.00011126500211961579
-0.00023726896056574186 -2.044965474626981e-5 -0.00013085740833364496
-0.0002615070424521196 -2.0116436036438742e-5 -0.0001523199507738888
-0.00028543575198009566 -1.9445580202588252e-5 -0.0001754088685780545
-0.0003097473116572594 -1.8628744370366176e-5 -0.0001995542317087293
-0.0003341381099586488 -1.7761080277531474e-5 -0.00022497490523258533
-0.00035866487386566155 -1.6841184897806935e-5 -0.0002516163887781249
-0.00038342155479496735 -1.5908870848973192e-5 -0.0002793763266890262
-0.0004084210403604179 -1.4990228470528138e-5 -0.00030822847360465887
-0.00043369618385289305 -1.4097080931467835e-5 -0.0003381268457407879
-0.00045927876197884713 -1.3239226223803394e-5 -0.00036902326965373023
-0.0004851919765198318 -1.2422079887986413e-5 -0.00040087667134484597
-0.0005114563533650834 -1.1647626627460513e-5 -0.00043364658478386336
-0.0005380887782057464 -1.0915973601481775e-5 -0.0004672942282217254
-0.0005651023958760745 -1.0225852028230267e-5 -0.0005017829245443308
-0.0005925071443049892 -9.57513353565625e-6 -0.0005370776646057743
-0.0006203099776606143 -8.961239763723479e-6 -0.0005731450760038084
-0.0006485151327105781 -8.381398474346802e-6 -0.0006099533481886024
-0.0006771244063853791 -7.832822668469326e-6 -0.0006474721268278393
-0.0007061374053770839 -7.312826913165269e-6 -0.0006856724328508025
-0.0007355517792094308 -6.8188957163754145e-6 -0.0007245265861918152
-0.0007653634337460514 -6.348719553038145e-6 -0.0007640081360035234
-0.0007955667239316288 -5.900208476524975e-6 -0.000804091798862259
-0.0008261546268238138 -5.4714909055621465e-6 -0.0008447534035093126
-0.0008571188959110224 -5.06090324853116e-6 -0.0008859698413730591
-0.0008884501980549866 -4.66697435009103e-6 -0.00092771902193555
-0.0009201382345641123 -4.288407544995034e-6 -0.0009699798318728775
-0.0009521718479225152 -3.924062189725313e-6 -0.0010127320969052656
-0.0009845391156894207 -3.572935850819733e-6 -0.0010559565452707045
-0.0010172274330657002 -3.234147811511639e-6 -0.0010996347716987346
-0.001050223585644308 -2.9069241660067393e-6 -0.0011437492006844778
-0.0010835138139712159 -2.5905844676857345e-6 -0.0011882830477233676
-0.0011170838718084382 -2.2845296560170634e-6 -0.0012332202769479164
-0.0011509190805011015 -1.9882307890361286e-6 -0.0012785455533018025
-0.0011850043827343149 -1.7012179465626698e-6 -0.0013242441870018277
-0.0012193244004052369 -1.4230685519842645e-6 -0.0013703020676187913
-0.0012538635035852625 -1.15339431557627e-6 -0.0014167055847637438
-0.001288605900942985 -8.918260863315621e-7 -0.0014634415323377002
-0.0013235357669278813 -6.379962064147193e-7 -0.0015104969940649793
-0.0013586374277312165 -3.9151865368306207e-7 -0.0015578592104749723
-0.001393895636179991 -1.5196858236367907e-7 -0.0016055154329879307
-0.0014292959742154018 8.113465890273566e-8 -0.0016534527803637802
-0.001464825424726575 3.083320398289484e-7 -0.0017016581260362862
-0.0015004731616185467 5.301991058938844e-7 -0.0017501180489395997
-0.0015362316256025618 7.472562261628916e-7 -0.0017988188432152379
-0.0015720981161799026 9.597420297488404e-7 -0.0018477464766252518
-0.0016080777079584719 1.1671899780053368e-6 -0.0018968860932475301
-0.0016441908790010196 1.3677685874204927e-6 -0.0019462212276268565
-0.0016804849996461346 1.5571696132006724e-6 -0.0019957348142353093
-0.0017170870017727059 1.7293743923407059e-6 -0.00204542444725066
-0.0017541725230327324 1.8846812393092396e-6 -0.0020953984447801654
-0.001792075281633069 2.008032051476014e-6 -0.0021460079541868993
0.0 0.0 0.0
-6.109148317280897e-5 3.272224487012847e-6 -1.0740932888351169e-5
-4.898550202619551e-5 1.3556775428014737e-5 -1.7224314768274677e-5
-4.993031592742673e-5 1.1306945121506847e-5 -3.1288986082106535e-5
-0.00010650591497692787 1.2490019821409986e-5 -3.188666746785439e-5
-0.00012056070140805428 1.902752107446516e-5 -4.491478688253591e-5
-0.00013421751853968797 1.888211125034024e-5 -6.236282835731462e-5
-0.0001662314789431034 1.9265425041255575e-5 -7.421295552285022e-5
-0.00019023138228577009 2.084950409194853e-5 -9.130592509973637e-5
-0.0002122693661001655 2.080565786255081e-5 -0.00011126500211961643
-0.00023726896056574132 2.044965474627014e-5 -0.00013085740833364488
-0.0002615070424521194 2.011643603643896e-5 -0.00015231995077388873
-0.00028543575198009463 1.9445580202588466e-5 -0.0001754088685780548
-0.000309747311657259 1.862874437036656e-5 -0.00019955423170872906
-0.00033413810995864835 1.7761080277531474e-5 -0.00022497490523258555
-0.0003586648738656608 1.684118489780712e-5 -0.00025161638877812506
-0.00038342155479496724 1.5908870848973236e-5 -0.00027937632668902627
-0.0004084210403604175 1.499022847052811e-5 -0.0003082284736046591
-0.00043369618385289267 1.4097080931467796e-5 -0.00033812684574078823
-0.0004592787619788466 1.3239226223803653e-5 -0.0003690232696537305
-0.00048519197651983125 1.2422079887986543e-5 -0.00040087667134484575
-0.0005114563533650829 1.1647626627460592e-5 -0.0004336465847838634
-0.0005380887782057462 1.0915973601481712e-5 -0.0004672942282217253
-0.0005651023958760737 1.022585202823054e-5 -0.0005017829245443312
-0.0005925071443049884 9.575133535655861e-6 -0.0005370776646057749
-0.0006203099776606133 8.96123976372437e-6 -0.0005731450760038083
-0.0006485151327105775 8.38139847434652e-6 -0.0006099533481886028
-0.0006771244063853796 7.832822668469192e-6 -0.0006474721268278391
-0.0007061374053770825 7.312826913166419e-6 -0.000685672432850804
-0.0007355517792094297 6.818895716374735e-6 -0.000724526586191816
-0.0007653634337460505 6.348719553038459e-6 -0.0007640081360035235
-0.0007955667239316288 5.900208476524895e-6 -0.0008040917988622585
-0.000826154626823813 5.4714909055620356e-6 -0.000844753403509314
-0.0008571188959110212 5.060903248531527e-6 -0.0008859698413730603
-0.0008884501980549863 4.666974350091271e-6 -0.00092771902193555
-0.0009201382345641111 4.288407544995982e-6 -0.0009699798318728775
-0.0009521718479225154 3.924062189724903e-6 -0.001012732096905265
-0.00098453911568942 3.5729358508206194e-6 -0.0010559565452707056
-0.0010172274330656997 3.2341478115104686e-6 -0.0010996347716987346
-0.0010502235856443072 2.9069241660071086e-6 -0.0011437492006844785
-0.0010835138139712146 2.590584467686119e-6 -0.0011882830477233674
-0.0011170838718084376 2.2845296560176893e-6 -0.0012332202769479172
-0.0011509190805011008 1.988230789035351e-6 -0.0012785455533018027
-0.0011850043827343144 1.701217946562857e-6 -0.0013242441870018272
-0.001219324400405237 1.4230685519833887e-6 -0.0013703020676187915
-0.001253863503585261 1.1533943155763778e-6 -0.0014167055847637445
-0.0012886059009429845 8.918260863311674e-7 -0.001463441532337701
-0.0013235357669278806 6.379962064147529e-7 -0.0015104969940649806
-0.0013586374277312157 3.915186536833396e-7 -0.0015578592104749714
-0.001393895636179991 1.5196858236409165e-7 -0.0016055154329879307
-0.001429295974215401 -8.113465890274337e-8 -0.0016534527803637822
-0.0014648254247265746 -3.083320398278369e-7 -0.001701658126036288
-0.0015004731616185462 -5.301991058954469e-7 -0.0017501180489396
-0.0015362316256025607 -7.472562261625667e-7 -0.0017988188432152379
-0.001572098116179903 -9.597420297498725e-7 -0.0018477464766252516
-0.0016080777079584712 -1.167189978006062e-6 -0.0018968860932475297
-0.0016441908790010183 -1.367768587422264e-6 -0.0019462212276268563
-0.0016804849996461353 -1.5571696132012176e-6 -0.001995734814235308
-0.0017170870017727043 -1.7293743923414322e-6 -0.0020454244472506607
-0.0017541725230327322 -1.884681239309037e-6 -0.0020953984447801663
-0.0017920752816330673 -2.008032051475052e-6 -0.002146007954186901
0.0 0.0 0.0
-6.261846242555349e-5 2.4240150178794224e-5 3.6694225503440786e-7
-5.837030131366986e-5 6.714331715345949e-5 9.471153387431252e-6
-6.091651830255635e-5 4.941067831073446e-5 -5.87201463205917e-6
-0.00010840112039083484 4.879183297925992e-5 -7.5117012113176414e-6
-0.00011706946736527287 7.080647849086611e-5 -1.3474388432380206e-5
-0.00012879909458326057 6.651903183336506e-5 -3.0740159179506436e-5
-0.00015653174034591148 6.218471145010633e-5 -4.581601565259732e-5
-0.00017624576130191068 6.472355726688534e-5 -6.414799705470706e-5
-0.00019600075224116836 6.259492525759132e-5 -8.586616622812035e-5
-0.0002192939175261838 5.9397067393043546e-5 -0.00010804311827331551
-0.0002421533171050578 5.717939916389022e-5 -0.0001318334104867621
-0.0002653312815445405 5.4460712910100206e-5 -0.00015706909354221835
-0.00028930066418811476 5.157567258534987e-5 -0.00018327079910490448
-0.0003136183474934243 4.8841718011213706e-5 -0.00021054741984722844
-0.0003383090101180049 4.615528446164189e-5 -0.0002388399998886382
-0.00036340124061751567 4.355299874529565e-5 -0.00026806933572870445
-0.0003888556611032977 4.1070934386711116e-5 -0.00029821752118506324
-0.0004146713666174927 3.870572121707184e-5 -0.00032925456380399716
-0.00044085173106737073 3.645870340668817e-5 -0.0003611510886362168
-0.00046739815400414104 3.43286234615159e-5 -0.0003938829772142926
-0.0004943151902192864 3.231010436467736e-5 -0.0004274257529275245
-0.0005216077738922707 3.039700846155116e-5 -0.0004617552122441582
-0.0005492803393489986 2.8582596271449284e-5 -0.0004968474930027086
-0.0005773366457813322 2.6859843144305067e-5 -0.0005326787261137313
-0.0006057793756129637 2.522185660234433e-5 -0.0005692250951905613
-0.0006346099373669287 2.3662045864670055e-5 -0.0006064628936087154
-0.0006638283747740607 2.2174232109403026e-5 -0.0006443685879831774
-0.0006934333269552701 2.0752711722922683e-5 -0.0006829189081135754
-0.0007234220396754896 1.939227469672752e-5 -0.0007220909358504719
-0.0007537904098034803 1.8088197468933814e-5 -0.0007618621886586458
-0.0007845330509765829 1.6836219066250755e-5 -0.0008022106950020478
-0.0008156433725171154 1.5632507153248042e-5 -0.0008431150587903203
-0.0008471136649457725 1.447361934537486e-5 -0.0008845545121969899
-0.0008789351872031233 1.335646338750099e-5 -0.0009265089569082131
-0.0009110982520109328 1.2278258691002916e-5 -0.0009689589943353942
-0.0009435923067918857 1.123650089281935e-5 -0.0010118859456110208
-0.0009764060083575814 1.0228930475407831e-5 -0.0010552718622421323
-0.0010095272901934921 9.253506055664317e-6 -0.0010990995281944824
-0.001042943421679328 8.308382662256354e-6 -0.00114335245394413
-0.0010766410590562268 7.391895137363875e-6 -0.0011880148626715863
-0.001110606288478185 6.502546685348384e-6 -0.0012330716682919696
-0.0011448246621878007 5.639002506082383e-6 -0.0012785084444160008
-0.0011792812299096394 4.8000883447908154e-6 -0.0013243113826337026
-0.0012139605692056002 3.98479359363368e-6 -0.0013704672377516072
-0.001248846821132795 3.1922781943688877e-6 -0.0014169632569107132
-0.0012839237415482828 2.421881872408919e-6 -0.00146378708913352
-0.0013191747843522518 1.6731329880179776e-6 -0.0015109266723331073
-0.0013545832412598068 9.457523161144268e-7 -0.0015583700971534046
-0.001390132473063998 2.3964415388301197e-7 -0.001606105452691341
-0.0014258062786552152 -4.4513659679136024e-7 -0.0016541206690463405
-0.0014615894556568954 -1.1084558707148262e-6 -0.0017024033834560047
-0.001497468621603915 -1.7502310704519597e-6 -0.0017509408558120537
-0.001533433403484177 -2.370647029575665e-6 -0.0017997199033661247
-0.0015694783306921135 -2.970489899253456e-6 -0.0018487266718194295
-0.0016056064530577735 -3.551867250828818e-6 -0.0018979457750148904
-0.0016418383682122615 -4.119873982706416e-6 -0.0019473589604372156
-0.0016782261545320466 -4.684821201266889e-6 -0.0019969454719277534
-0.001714908565138054 -5.274562919510038e-6 -0.002046699532972107
-0.0017520753849736667 -5.94222235224028e-6 -0.0020967377703059015
-0.0017900493363846952 -6.629535282421039e-6 -0.0021474358153954916
0.0 0.0 0.0
-3.062523305303243e-6 -9.30196286128337e-6 2.386720422623888e-6
-8.852437443944008e-6 -1.1022055053069775e-5 2.7671551436770796e-6
-1.6186700934895226e-5 -1.5370492803938312e-5 -4.113497295322348e-6
-1.2249731268443822e-5 -1.8718866535292908e-5 -1.685275813824659e-5
-1.649034991594265e-5 -1.8500922333892783e-5 -3.1169239917962287e-5
-2.3265679293700105e-5 -1.9878673233490062e-5 -4.8722397311959095e-5
-2.7078351807531116e-5 -2.0604626057023278e-5 -7.055661986768803e-5
-3.3021195726745854e-5 -2.0220270413316626e-5 -9.447735202289324e-5
-4.1150240900114334e-5 -1.9878262535403165e-5 -0.00012062679747240641
-5.0223456267371334e-5 -1.9288219103727846e-5 -0.00014913978909257374
-6.076928613461815e-5 -1.8408404725427584e-5 -0.00017934136590972642
-7.284323633310588e-5 -1.74435843962923e-5 -0.00021102078918105744
-8.621651053132669e-5 -1.6410289471385972e-5 -0.0002440680592812104
-0.00010084391814966246 -1.5330070496335942e-5 -0.000278286011335408
-0.00011666306376899883 -1.4243629018523185e-5 -0.0003135503328372194
-0.0001335878610684024 -1.316960505718844e-5 -0.00034977238617693525
-0.00015155307846023792 -1.2120936354073041e-5 -0.0003868702988157994
-0.000170500752099217 -1.1108064533141835e-5 -0.00042477927845095036
-0.00019037792979488077 -1.0136942026395066e-5 -0.000463446123383272
-0.00021113881209473397 -9.210793706201412e-6 -0.0005028244798835739
-0.00023274308655671548 -8.330963715514335e-6 -0.000542873793171388
-0.00025515486297975087 -7.4972997810446015e-6 -0.0005835577089640674
-0.00027834195594248065 -6.7086324147665585e-6 -0.0006248428884099368
-0.00030227507756141976 -5.96311909775058e-6 -0.0006666983268297319
-0.0003269271723229053 -5.2584940038435475e-6 -0.0007090948501849794
-0.00035227287867768415 -4.592263215661937e-6 -0.0007520047826952195
-0.0003782880886518433 -3.9618468062661755e-6 -0.0007954017425722394
-0.00040494960301611153 -3.364679604538039e-6 -0.0008392605158132922
-0.0004322348677451967 -2.79828041464577e-6 -0.0008835569826979575
-0.0004601217774521045 -2.2602965845242233e-6 -0.000928268076903471
-0.0004885885334149666 -1.7485299950977852e-6 -0.0009733717626158532
-0.0005176135447361576 -1.2609493620761775e-6 -0.0010188470202326574
-0.0005471753627162175 -7.956927085324948e-7 -0.0010646738345662307
-0.0005772526401224688 -3.5106303214808567e-7 -0.001110833181951708
-0.0006078241085113476 7.448053597890564e-8 -0.001157307014487941
-0.0006388685681242678 4.823343995416275e-7 -0.0012040782409149027
-0.0006703648860755465 8.73763832091452e-7 -0.0012511307045373437
-0.0007022919995774876 1.2499172677604805e-6 -0.0012984491592582842
-0.0007346289218075258 1.6118412339563605e-6 -0.0013460192452796282
-0.0007673547487231643 1.96049598119536e-6 -0.001393827466430303
-0.0008004486656795507 2.2967722292105124e-6 -0.0014418611714332417
-0.0008338899531014754 2.6215098306337285e-6 -0.0014901085417218978
-0.0008676579906905543 2.935519574915549e-6 -0.0015385585886087496
-0.0009017322596679915 3.2396098297812226e-6 -0.0015872011625504604
-0.0009360923422792435 3.534620245547336e-6 -0.0016360269766747114
-0.0009707179170692175 3.821465302522768e-6 -0.001685027645171232
-0.001005588747030837 4.101190991084979e-6 -0.0017341957338925685
-0.001040684655347564 4.375048218359599e-6 -0.0017835248145172088
-0.0010759854799655547 4.6445862861264535e-6 -0.0018330095032990227
-0.0011114709949697679 4.911768394507241e-6 -0.0018826454481413058
-0.0011471207868822173 5.179106212135273e-6 -0.0019324291965726818
-0.001182914093452427 5.44979921743615e-6 -0.001982357814798963
-0.0012188296471719396 5.727837303214685e-6 -0.0020324279992123945